TITLE="Hexahedron mesh"
VARIABLES= "x" "y" "z" "var"
ZONE T="none",N=300,E=162,ET=Brick, F=FEPOINT
                   0	                   0	                   0	                   0
                   0	                   1	                   0	                   0
                   1	                   1	                   0	                   0
                   1	                   0	                   0	                   0
                   1	                   0	                 0.1	                   0
                   0	                   0	                 0.1	                   0
                   0	                   1	                 0.1	                   0
                   1	                   1	                 0.1	                   0
                   1	                   0	                 0.2	                   0
                   0	                   0	                 0.2	                   0
                   0	                   1	                 0.2	                   0
                   1	                   1	                 0.2	                   0
   0.888888888888426	                   0	                   0	                   0
   0.777777777777932	                   0	                   0	                   0
   0.666666666667592	                   0	                   0	                   0
   0.555555555557251	                   0	                   0	                   0
   0.444444444446294	                   0	                   0	                   0
   0.333333333334721	                   0	                   0	                   0
   0.222222222223147	                   0	                   0	                   0
   0.111111111111574	                   0	                   0	                   0
                   0	   0.111111111110908	                   0	                   0
                   0	   0.222222222221714	                   0	                   0
                   0	   0.333333333332501	                   0	                   0
                   0	   0.444444444443288	                   0	                   0
                   0	   0.555555555554383	                   0	                   0
                   0	   0.666666666665787	                   0	                   0
                   0	   0.777777777777192	                   0	                   0
                   0	   0.888888888888596	                   0	                   0
   0.111111111110908	                   1	                   0	                   0
   0.222222222221714	                   1	                   0	                   0
   0.333333333332501	                   1	                   0	                   0
   0.444444444443288	                   1	                   0	                   0
   0.555555555554383	                   1	                   0	                   0
   0.666666666665787	                   1	                   0	                   0
   0.777777777777192	                   1	                   0	                   0
   0.888888888888596	                   1	                   0	                   0
                   1	   0.888888888888426	                   0	                   0
                   1	   0.777777777777932	                   0	                   0
                   1	   0.666666666667592	                   0	                   0
                   1	   0.555555555557251	                   0	                   0
                   1	   0.444444444446294	                   0	                   0
                   1	   0.333333333334721	                   0	                   0
                   1	   0.222222222223147	                   0	                   0
                   1	   0.111111111111574	                   0	                   0
   0.888888888888426	                   0	                 0.1	                   0
   0.777777777777932	                   0	                 0.1	                   0
   0.666666666667592	                   0	                 0.1	                   0
   0.555555555557251	                   0	                 0.1	                   0
   0.444444444446294	                   0	                 0.1	                   0
   0.333333333334721	                   0	                 0.1	                   0
   0.222222222223147	                   0	                 0.1	                   0
   0.111111111111574	                   0	                 0.1	                   0
                   0	   0.111111111110908	                 0.1	                   0
                   0	   0.222222222221714	                 0.1	                   0
                   0	   0.333333333332501	                 0.1	                   0
                   0	   0.444444444443288	                 0.1	                   0
                   0	   0.555555555554383	                 0.1	                   0
                   0	   0.666666666665787	                 0.1	                   0
                   0	   0.777777777777192	                 0.1	                   0
                   0	   0.888888888888596	                 0.1	                   0
   0.111111111110908	                   1	                 0.1	                   0
   0.222222222221714	                   1	                 0.1	                   0
   0.333333333332501	                   1	                 0.1	                   0
   0.444444444443288	                   1	                 0.1	                   0
   0.555555555554383	                   1	                 0.1	                   0
   0.666666666665787	                   1	                 0.1	                   0
   0.777777777777192	                   1	                 0.1	                   0
   0.888888888888596	                   1	                 0.1	                   0
                   1	   0.888888888888426	                 0.1	                   0
                   1	   0.777777777777932	                 0.1	                   0
                   1	   0.666666666667592	                 0.1	                   0
                   1	   0.555555555557251	                 0.1	                   0
                   1	   0.444444444446294	                 0.1	                   0
                   1	   0.333333333334721	                 0.1	                   0
                   1	   0.222222222223147	                 0.1	                   0
                   1	   0.111111111111574	                 0.1	                   0
   0.888888888888426	                   0	                 0.2	                   0
   0.777777777777932	                   0	                 0.2	                   0
   0.666666666667592	                   0	                 0.2	                   0
   0.555555555557251	                   0	                 0.2	                   0
   0.444444444446294	                   0	                 0.2	                   0
   0.333333333334721	                   0	                 0.2	                   0
   0.222222222223147	                   0	                 0.2	                   0
   0.111111111111574	                   0	                 0.2	                   0
                   0	   0.111111111110908	                 0.2	                   0
                   0	   0.222222222221714	                 0.2	                   0
                   0	   0.333333333332501	                 0.2	                   0
                   0	   0.444444444443288	                 0.2	                   0
                   0	   0.555555555554383	                 0.2	                   0
                   0	   0.666666666665787	                 0.2	                   0
                   0	   0.777777777777192	                 0.2	                   0
                   0	   0.888888888888596	                 0.2	                   0
   0.111111111110908	                   1	                 0.2	                   0
   0.222222222221714	                   1	                 0.2	                   0
   0.333333333332501	                   1	                 0.2	                   0
   0.444444444443288	                   1	                 0.2	                   0
   0.555555555554383	                   1	                 0.2	                   0
   0.666666666665787	                   1	                 0.2	                   0
   0.777777777777192	                   1	                 0.2	                   0
   0.888888888888596	                   1	                 0.2	                   0
                   1	   0.888888888888426	                 0.2	                   0
                   1	   0.777777777777932	                 0.2	                   0
                   1	   0.666666666667592	                 0.2	                   0
                   1	   0.555555555557251	                 0.2	                   0
                   1	   0.444444444446294	                 0.2	                   0
                   1	   0.333333333334721	                 0.2	                   0
                   1	   0.222222222223147	                 0.2	                   0
                   1	   0.111111111111574	                 0.2	                   0
   0.888888888888445	     0.1111111111115	                   0	                   0
   0.888888888888464	   0.222222222222988	                   0	                   0
   0.888888888888482	   0.333333333334474	                   0	                   0
   0.888888888888502	    0.44444444444596	                   0	                   0
   0.888888888888521	   0.555555555556933	                   0	                   0
   0.888888888888539	   0.666666666667391	                   0	                   0
   0.888888888888558	    0.77777777777785	                   0	                   0
   0.888888888888577	   0.888888888888445	                   0	                   0
    0.77777777777785	   0.111111111111426	                   0	                   0
   0.777777777777767	   0.222222222222829	                   0	                   0
   0.777777777777685	   0.333333333334227	                   0	                   0
   0.777777777777603	   0.444444444445626	                   0	                   0
   0.777777777777521	   0.555555555556614	                   0	                   0
   0.777777777777438	   0.666666666667191	                   0	                   0
   0.777777777777356	   0.777777777777767	                   0	                   0
   0.777777777777274	   0.888888888888464	                   0	                   0
   0.666666666667391	   0.111111111111352	                   0	                   0
   0.666666666667191	   0.222222222222669	                   0	                   0
    0.66666666666699	   0.333333333333981	                   0	                   0
    0.66666666666679	   0.444444444445292	                   0	                   0
   0.666666666666589	   0.555555555556295	                   0	                   0
   0.666666666666389	    0.66666666666699	                   0	                   0
   0.666666666666188	   0.777777777777685	                   0	                   0
   0.666666666665988	   0.888888888888483	                   0	                   0
   0.555555555556933	   0.111111111111278	                   0	                   0
   0.555555555556614	    0.22222222222251	                   0	                   0
   0.555555555556295	   0.333333333333734	                   0	                   0
   0.555555555555977	   0.444444444444958	                   0	                   0
   0.555555555555658	   0.555555555555977	                   0	                   0
   0.555555555555339	    0.66666666666679	                   0	                   0
   0.555555555555021	   0.777777777777603	                   0	                   0
   0.555555555554702	   0.888888888888502	                   0	                   0
    0.44444444444596	   0.111111111111204	                   0	                   0
   0.444444444445626	   0.222222222222351	                   0	                   0
   0.444444444445292	   0.333333333333488	                   0	                   0
   0.444444444444958	   0.444444444444624	                   0	                   0
   0.444444444444624	   0.555555555555658	                   0	                   0
    0.44444444444429	   0.666666666666589	                   0	                   0
   0.444444444443956	   0.777777777777521	                   0	                   0
   0.444444444443622	    0.88888888888852	                   0	                   0
   0.333333333334474	    0.11111111111113	                   0	                   0
   0.333333333334227	   0.222222222222192	                   0	                   0
   0.333333333333981	   0.333333333333241	                   0	                   0
   0.333333333333734	    0.44444444444429	                   0	                   0
   0.333333333333488	   0.555555555555339	                   0	                   0
   0.333333333333241	   0.666666666666389	                   0	                   0
   0.333333333332994	   0.777777777777438	                   0	                   0
   0.333333333332748	   0.888888888888539	                   0	                   0
   0.222222222222988	   0.111111111111056	                   0	                   0
   0.222222222222829	   0.222222222222033	                   0	                   0
   0.222222222222669	   0.333333333332994	                   0	                   0
    0.22222222222251	   0.444444444443956	                   0	                   0
   0.222222222222351	   0.555555555555021	                   0	                   0
   0.222222222222192	   0.666666666666188	                   0	                   0
   0.222222222222033	   0.777777777777356	                   0	                   0
   0.222222222221873	   0.888888888888558	                   0	                   0
     0.1111111111115	   0.111111111110982	                   0	                   0
   0.111111111111426	   0.222222222221873	                   0	                   0
   0.111111111111352	   0.333333333332748	                   0	                   0
   0.111111111111278	   0.444444444443622	                   0	                   0
   0.111111111111204	   0.555555555554702	                   0	                   0
    0.11111111111113	   0.666666666665988	                   0	                   0
   0.111111111111056	   0.777777777777274	                   0	                   0
   0.111111111110982	   0.888888888888577	                   0	                   0
   0.888888888888445	     0.1111111111115	                 0.1	                   0
   0.888888888888464	   0.222222222222988	                 0.1	                   0
   0.888888888888482	   0.333333333334474	                 0.1	                   0
   0.888888888888502	    0.44444444444596	                 0.1	                   0
   0.888888888888521	   0.555555555556933	                 0.1	                   0
   0.888888888888539	   0.666666666667391	                 0.1	                   0
   0.888888888888558	    0.77777777777785	                 0.1	                   0
   0.888888888888577	   0.888888888888445	                 0.1	                   0
    0.77777777777785	   0.111111111111426	                 0.1	                   0
   0.777777777777767	   0.222222222222829	                 0.1	                   0
   0.777777777777685	   0.333333333334227	                 0.1	                   0
   0.777777777777603	   0.444444444445626	                 0.1	                   0
   0.777777777777521	   0.555555555556614	                 0.1	                   0
   0.777777777777438	   0.666666666667191	                 0.1	                   0
   0.777777777777356	   0.777777777777767	                 0.1	                   0
   0.777777777777274	   0.888888888888464	                 0.1	                   0
   0.666666666667391	   0.111111111111352	                 0.1	                   0
   0.666666666667191	   0.222222222222669	                 0.1	                   0
    0.66666666666699	   0.333333333333981	                 0.1	                   0
    0.66666666666679	   0.444444444445292	                 0.1	                   0
   0.666666666666589	   0.555555555556295	                 0.1	                   0
   0.666666666666389	    0.66666666666699	                 0.1	                   0
   0.666666666666188	   0.777777777777685	                 0.1	                   0
   0.666666666665988	   0.888888888888483	                 0.1	                   0
   0.555555555556933	   0.111111111111278	                 0.1	                   0
   0.555555555556614	    0.22222222222251	                 0.1	                   0
   0.555555555556295	   0.333333333333734	                 0.1	                   0
   0.555555555555977	   0.444444444444958	                 0.1	                   0
   0.555555555555658	   0.555555555555977	                 0.1	                   0
   0.555555555555339	    0.66666666666679	                 0.1	                   0
   0.555555555555021	   0.777777777777603	                 0.1	                   0
   0.555555555554702	   0.888888888888502	                 0.1	                   0
    0.44444444444596	   0.111111111111204	                 0.1	                   0
   0.444444444445626	   0.222222222222351	                 0.1	                   0
   0.444444444445292	   0.333333333333488	                 0.1	                   0
   0.444444444444958	   0.444444444444624	                 0.1	                   0
   0.444444444444624	   0.555555555555658	                 0.1	                   0
    0.44444444444429	   0.666666666666589	                 0.1	                   0
   0.444444444443956	   0.777777777777521	                 0.1	                   0
   0.444444444443622	    0.88888888888852	                 0.1	                   0
   0.333333333334474	    0.11111111111113	                 0.1	                   0
   0.333333333334227	   0.222222222222192	                 0.1	                   0
   0.333333333333981	   0.333333333333241	                 0.1	                   0
   0.333333333333734	    0.44444444444429	                 0.1	                   0
   0.333333333333488	   0.555555555555339	                 0.1	                   0
   0.333333333333241	   0.666666666666389	                 0.1	                   0
   0.333333333332994	   0.777777777777438	                 0.1	                   0
   0.333333333332748	   0.888888888888539	                 0.1	                   0
   0.222222222222988	   0.111111111111056	                 0.1	                   0
   0.222222222222829	   0.222222222222033	                 0.1	                   0
   0.222222222222669	   0.333333333332994	                 0.1	                   0
    0.22222222222251	   0.444444444443956	                 0.1	                   0
   0.222222222222351	   0.555555555555021	                 0.1	                   0
   0.222222222222192	   0.666666666666188	                 0.1	                   0
   0.222222222222033	   0.777777777777356	                 0.1	                   0
   0.222222222221873	   0.888888888888558	                 0.1	                   0
     0.1111111111115	   0.111111111110982	                 0.1	                   0
   0.111111111111426	   0.222222222221873	                 0.1	                   0
   0.111111111111352	   0.333333333332748	                 0.1	                   0
   0.111111111111278	   0.444444444443622	                 0.1	                   0
   0.111111111111204	   0.555555555554702	                 0.1	                   0
    0.11111111111113	   0.666666666665988	                 0.1	                   0
   0.111111111111056	   0.777777777777274	                 0.1	                   0
   0.111111111110982	   0.888888888888577	                 0.1	                   0
   0.888888888888445	     0.1111111111115	                 0.2	                   0
   0.888888888888464	   0.222222222222988	                 0.2	                   0
   0.888888888888482	   0.333333333334474	                 0.2	                   0
   0.888888888888502	    0.44444444444596	                 0.2	                   0
   0.888888888888521	   0.555555555556933	                 0.2	                   0
   0.888888888888539	   0.666666666667391	                 0.2	                   0
   0.888888888888558	    0.77777777777785	                 0.2	                   0
   0.888888888888577	   0.888888888888445	                 0.2	                   0
    0.77777777777785	   0.111111111111426	                 0.2	                   0
   0.777777777777767	   0.222222222222829	                 0.2	                   0
   0.777777777777685	   0.333333333334227	                 0.2	                   0
   0.777777777777603	   0.444444444445626	                 0.2	                   0
   0.777777777777521	   0.555555555556614	                 0.2	                   0
   0.777777777777438	   0.666666666667191	                 0.2	                   0
   0.777777777777356	   0.777777777777767	                 0.2	                   0
   0.777777777777274	   0.888888888888464	                 0.2	                   0
   0.666666666667391	   0.111111111111352	                 0.2	                   0
   0.666666666667191	   0.222222222222669	                 0.2	                   0
    0.66666666666699	   0.333333333333981	                 0.2	                   0
    0.66666666666679	   0.444444444445292	                 0.2	                   0
   0.666666666666589	   0.555555555556295	                 0.2	                   0
   0.666666666666389	    0.66666666666699	                 0.2	                   0
   0.666666666666188	   0.777777777777685	                 0.2	                   0
   0.666666666665988	   0.888888888888483	                 0.2	                   0
   0.555555555556933	   0.111111111111278	                 0.2	                   0
   0.555555555556614	    0.22222222222251	                 0.2	                   0
   0.555555555556295	   0.333333333333734	                 0.2	                   0
   0.555555555555977	   0.444444444444958	                 0.2	                   0
   0.555555555555658	   0.555555555555977	                 0.2	                   0
   0.555555555555339	    0.66666666666679	                 0.2	                   0
   0.555555555555021	   0.777777777777603	                 0.2	                   0
   0.555555555554702	   0.888888888888502	                 0.2	                   0
    0.44444444444596	   0.111111111111204	                 0.2	                   0
   0.444444444445626	   0.222222222222351	                 0.2	                   0
   0.444444444445292	   0.333333333333488	                 0.2	                   0
   0.444444444444958	   0.444444444444624	                 0.2	                   0
   0.444444444444624	   0.555555555555658	                 0.2	                   0
    0.44444444444429	   0.666666666666589	                 0.2	                   0
   0.444444444443956	   0.777777777777521	                 0.2	                   0
   0.444444444443622	    0.88888888888852	                 0.2	                   0
   0.333333333334474	    0.11111111111113	                 0.2	                   0
   0.333333333334227	   0.222222222222192	                 0.2	                   0
   0.333333333333981	   0.333333333333241	                 0.2	                   0
   0.333333333333734	    0.44444444444429	                 0.2	                   0
   0.333333333333488	   0.555555555555339	                 0.2	                   0
   0.333333333333241	   0.666666666666389	                 0.2	                   0
   0.333333333332994	   0.777777777777438	                 0.2	                   0
   0.333333333332748	   0.888888888888539	                 0.2	                   0
   0.222222222222988	   0.111111111111056	                 0.2	                   0
   0.222222222222829	   0.222222222222033	                 0.2	                   0
   0.222222222222669	   0.333333333332994	                 0.2	                   0
    0.22222222222251	   0.444444444443956	                 0.2	                   0
   0.222222222222351	   0.555555555555021	                 0.2	                   0
   0.222222222222192	   0.666666666666188	                 0.2	                   0
   0.222222222222033	   0.777777777777356	                 0.2	                   0
   0.222222222221873	   0.888888888888558	                 0.2	                   0
     0.1111111111115	   0.111111111110982	                 0.2	                   0
   0.111111111111426	   0.222222222221873	                 0.2	                   0
   0.111111111111352	   0.333333333332748	                 0.2	                   0
   0.111111111111278	   0.444444444443622	                 0.2	                   0
   0.111111111111204	   0.555555555554702	                 0.2	                   0
    0.11111111111113	   0.666666666665988	                 0.2	                   0
   0.111111111111056	   0.777777777777274	                 0.2	                   0
   0.111111111110982	   0.888888888888577	                 0.2	                   0
       109	        13	         4	        44	       173	        45	         5	        76
       110	       109	        44	        43	       174	       173	        76	        75
       111	       110	        43	        42	       175	       174	        75	        74
       112	       111	        42	        41	       176	       175	        74	        73
       113	       112	        41	        40	       177	       176	        73	        72
       114	       113	        40	        39	       178	       177	        72	        71
       115	       114	        39	        38	       179	       178	        71	        70
       116	       115	        38	        37	       180	       179	        70	        69
        36	       116	        37	         3	        68	       180	        69	         8
       117	        14	        13	       109	       181	        46	        45	       173
       118	       117	       109	       110	       182	       181	       173	       174
       119	       118	       110	       111	       183	       182	       174	       175
       120	       119	       111	       112	       184	       183	       175	       176
       121	       120	       112	       113	       185	       184	       176	       177
       122	       121	       113	       114	       186	       185	       177	       178
       123	       122	       114	       115	       187	       186	       178	       179
       124	       123	       115	       116	       188	       187	       179	       180
        35	       124	       116	        36	        67	       188	       180	        68
       125	        15	        14	       117	       189	        47	        46	       181
       126	       125	       117	       118	       190	       189	       181	       182
       127	       126	       118	       119	       191	       190	       182	       183
       128	       127	       119	       120	       192	       191	       183	       184
       129	       128	       120	       121	       193	       192	       184	       185
       130	       129	       121	       122	       194	       193	       185	       186
       131	       130	       122	       123	       195	       194	       186	       187
       132	       131	       123	       124	       196	       195	       187	       188
        34	       132	       124	        35	        66	       196	       188	        67
       133	        16	        15	       125	       197	        48	        47	       189
       134	       133	       125	       126	       198	       197	       189	       190
       135	       134	       126	       127	       199	       198	       190	       191
       136	       135	       127	       128	       200	       199	       191	       192
       137	       136	       128	       129	       201	       200	       192	       193
       138	       137	       129	       130	       202	       201	       193	       194
       139	       138	       130	       131	       203	       202	       194	       195
       140	       139	       131	       132	       204	       203	       195	       196
        33	       140	       132	        34	        65	       204	       196	        66
       141	        17	        16	       133	       205	        49	        48	       197
       142	       141	       133	       134	       206	       205	       197	       198
       143	       142	       134	       135	       207	       206	       198	       199
       144	       143	       135	       136	       208	       207	       199	       200
       145	       144	       136	       137	       209	       208	       200	       201
       146	       145	       137	       138	       210	       209	       201	       202
       147	       146	       138	       139	       211	       210	       202	       203
       148	       147	       139	       140	       212	       211	       203	       204
        32	       148	       140	        33	        64	       212	       204	        65
       149	        18	        17	       141	       213	        50	        49	       205
       150	       149	       141	       142	       214	       213	       205	       206
       151	       150	       142	       143	       215	       214	       206	       207
       152	       151	       143	       144	       216	       215	       207	       208
       153	       152	       144	       145	       217	       216	       208	       209
       154	       153	       145	       146	       218	       217	       209	       210
       155	       154	       146	       147	       219	       218	       210	       211
       156	       155	       147	       148	       220	       219	       211	       212